PROCAR lm decomposed
# of k-points:   35         # of bands:   16         # of ions:    2

 k-point     1 :    0.00000000 0.00000000 0.00000000     weight = 0.00137174

band     1 # energy   -6.19666283 # occ.  2.00000000
 
ion      s     py     pz     px    dxy    dyz    dz2    dxz  x2-y2    tot
    1  0.212  0.000  0.000  0.000  0.000  0.000  0.000  0.000  0.000  0.212
    2  0.212  0.000  0.000  0.000  0.000  0.000  0.000  0.000  0.000  0.212
tot    0.424  0.000  0.000  0.000  0.000  0.000  0.000  0.000  0.000  0.424
 
band     2 # energy    5.62073863 # occ.  2.00000000
 
ion      s     py     pz     px    dxy    dyz    dz2    dxz  x2-y2    tot
    1  0.000  0.071  0.071  0.071  0.000  0.000  0.000  0.000  0.000  0.214
    2  0.000  0.071  0.071  0.071  0.000  0.000  0.000  0.000  0.000  0.214
tot    0.000  0.143  0.143  0.143  0.000  0.000  0.000  0.000  0.000  0.428
 
band     3 # energy    5.62073948 # occ.  2.00000000
 
ion      s     py     pz     px    dxy    dyz    dz2    dxz  x2-y2    tot
    1  0.000  0.036  0.143  0.036  0.000  0.000  0.000  0.000  0.000  0.214
    2  0.000  0.036  0.143  0.036  0.000  0.000  0.000  0.000  0.000  0.214
tot    0.000  0.071  0.285  0.071  0.000  0.000  0.000  0.000  0.000  0.428
 
band     4 # energy    5.62073948 # occ.  2.00000000
 
ion      s     py     pz     px    dxy    dyz    dz2    dxz  x2-y2    tot
    1  0.000  0.107  0.000  0.107  0.000  0.000  0.000  0.000  0.000  0.214
    2  0.000  0.107  0.000  0.107  0.000  0.000  0.000  0.000  0.000  0.214
tot    0.000  0.214  0.000  0.214  0.000  0.000  0.000  0.000  0.000  0.428
 
band     5 # energy    8.17762126 # occ.  0.00000000
 
ion      s     py     pz     px    dxy    dyz    dz2    dxz  x2-y2    tot
    1  0.000  0.050  0.050  0.050  0.000  0.000  0.000  0.000  0.000  0.151
    2  0.000  0.050  0.050  0.050  0.000  0.000  0.000  0.000  0.000  0.151
tot    0.000  0.100  0.100  0.100  0.000  0.000  0.000  0.000  0.000  0.301
 
band     6 # energy    8.17762178 # occ.  0.00000000
 
ion      s     py     pz     px    dxy    dyz    dz2    dxz  x2-y2    tot
    1  0.000  0.075  0.000  0.075  0.000  0.000  0.000  0.000  0.000  0.151
    2  0.000  0.075  0.000  0.075  0.000  0.000  0.000  0.000  0.000  0.151
tot    0.000  0.151  0.000  0.151  0.000  0.000  0.000  0.000  0.000  0.301
 
band     7 # energy    8.17762178 # occ.  0.00000000
 
ion      s     py     pz     px    dxy    dyz    dz2    dxz  x2-y2    tot
    1  0.000  0.025  0.100  0.025  0.000  0.000  0.000  0.000  0.000  0.151
    2  0.000  0.025  0.100  0.025  0.000  0.000  0.000  0.000  0.000  0.151
tot    0.000  0.050  0.201  0.050  0.000  0.000  0.000  0.000  0.000  0.301
 
band     8 # energy    8.75849173 # occ.  0.00000000
 
ion      s     py     pz     px    dxy    dyz    dz2    dxz  x2-y2    tot
    1  0.359  0.000  0.000  0.000  0.000  0.000  0.000  0.000  0.000  0.359
    2  0.359  0.000  0.000  0.000  0.000  0.000  0.000  0.000  0.000  0.359
tot    0.717  0.000  0.000  0.000  0.000  0.000  0.000  0.000  0.000  0.717
 
band     9 # energy   13.33207158 # occ.  0.00000000
 
ion      s     py     pz     px    dxy    dyz    dz2    dxz  x2-y2    tot
    1  0.000  0.000  0.000  0.000  0.000  0.000  0.000  0.000  0.000  0.000
    2  0.000  0.000  0.000  0.000  0.000  0.000  0.000  0.000  0.000  0.000
tot    0.000  0.000  0.000  0.000  0.000  0.000  0.000  0.000  0.000  0.000
 
band    10 # energy   13.33207158 # occ.  0.00000000
 
ion      s     py     pz     px    dxy    dyz    dz2    dxz  x2-y2    tot
    1  0.000  0.000  0.000  0.000  0.000  0.000  0.000  0.000  0.000  0.000
    2  0.000  0.000  0.000  0.000  0.000  0.000  0.000  0.000  0.000  0.000
tot    0.000  0.000  0.000  0.000  0.000  0.000  0.000  0.000  0.000  0.000
 
band    11 # energy   13.49930002 # occ.  0.00000000
 
ion      s     py     pz     px    dxy    dyz    dz2    dxz  x2-y2    tot
    1  0.100  0.000  0.000  0.000  0.000  0.000  0.000  0.000  0.000  0.100
    2  0.100  0.000  0.000  0.000  0.000  0.000  0.000  0.000  0.000  0.100
tot    0.201  0.000  0.000  0.000  0.000  0.000  0.000  0.000  0.000  0.201
 
band    12 # energy   16.80476558 # occ.  0.00000000
 
ion      s     py     pz     px    dxy    dyz    dz2    dxz  x2-y2    tot
    1  0.000  0.007  0.026  0.007  0.000  0.000  0.000  0.000  0.000  0.039
    2  0.000  0.007  0.026  0.007  0.000  0.000  0.000  0.000  0.000  0.039
tot    0.000  0.013  0.052  0.013  0.000  0.000  0.000  0.000  0.000  0.078
 
band    13 # energy   16.80476558 # occ.  0.00000000
 
ion      s     py     pz     px    dxy    dyz    dz2    dxz  x2-y2    tot
    1  0.000  0.020  0.000  0.020  0.000  0.000  0.000  0.000  0.000  0.039
    2  0.000  0.020  0.000  0.020  0.000  0.000  0.000  0.000  0.000  0.039
tot    0.000  0.039  0.000  0.039  0.000  0.000  0.000  0.000  0.000  0.078
 
band    14 # energy   16.80476576 # occ.  0.00000000
 
ion      s     py     pz     px    dxy    dyz    dz2    dxz  x2-y2    tot
    1  0.000  0.013  0.013  0.013  0.000  0.000  0.000  0.000  0.000  0.039
    2  0.000  0.013  0.013  0.013  0.000  0.000  0.000  0.000  0.000  0.039
tot    0.000  0.026  0.026  0.026  0.000  0.000  0.000  0.000  0.000  0.078
 
band    15 # energy   20.89656225 # occ.  0.00000000
 
ion      s     py     pz     px    dxy    dyz    dz2    dxz  x2-y2    tot
    1  0.038  0.000  0.000  0.000  0.000  0.000  0.000  0.000  0.000  0.038
    2  0.038  0.000  0.000  0.000  0.000  0.000  0.000  0.000  0.000  0.038
tot    0.075  0.000  0.000  0.000  0.000  0.000  0.000  0.000  0.000  0.075
 
band    16 # energy   28.48805390 # occ.  0.00000000
 
ion      s     py     pz     px    dxy    dyz    dz2    dxz  x2-y2    tot
    1  0.000  0.001  0.004  0.005  0.000  0.000  0.000  0.000  0.000  0.010
    2  0.000  0.001  0.004  0.005  0.000  0.000  0.000  0.000  0.000  0.010
tot    0.000  0.002  0.008  0.010  0.000  0.000  0.000  0.000  0.000  0.020
 

 k-point     2 :    0.11111111 0.00000000 0.00000000     weight = 0.01097394

band     1 # energy   -6.03801241 # occ.  2.00000000
 
ion      s     py     pz     px    dxy    dyz    dz2    dxz  x2-y2    tot
    1  0.211  0.001  0.001  0.001  0.000  0.000  0.000  0.000  0.000  0.213
    2  0.211  0.001  0.001  0.001  0.000  0.000  0.000  0.000  0.000  0.213
tot    0.422  0.001  0.001  0.001  0.000  0.000  0.000  0.000  0.000  0.426
 
band     2 # energy    4.28164491 # occ.  2.00000000
 
ion      s     py     pz     px    dxy    dyz    dz2    dxz  x2-y2    tot
    1  0.058  0.054  0.054  0.054  0.000  0.000  0.000  0.000  0.000  0.219
    2  0.058  0.054  0.054  0.054  0.000  0.000  0.000  0.000  0.000  0.219
tot    0.116  0.107  0.107  0.107  0.000  0.000  0.000  0.000  0.000  0.439
 
band     3 # energy    5.38851823 # occ.  2.00000000
 
ion      s     py     pz     px    dxy    dyz    dz2    dxz  x2-y2    tot
    1  0.000  0.035  0.035  0.141  0.000  0.000  0.000  0.000  0.000  0.211
    2  0.000  0.035  0.035  0.141  0.000  0.000  0.000  0.000  0.000  0.211
tot    0.000  0.070  0.070  0.282  0.000  0.000  0.000  0.000  0.000  0.423
 
band     4 # energy    5.38851882 # occ.  2.00000000
 
ion      s     py     pz     px    dxy    dyz    dz2    dxz  x2-y2    tot
    1  0.000  0.106  0.106  0.000  0.000  0.000  0.000  0.000  0.000  0.211
    2  0.000  0.106  0.106  0.000  0.000  0.000  0.000  0.000  0.000  0.211
tot    0.000  0.211  0.211  0.000  0.000  0.000  0.000  0.000  0.000  0.423
 
band     5 # energy    8.11139474 # occ.  0.00000000
 
ion      s     py     pz     px    dxy    dyz    dz2    dxz  x2-y2    tot
    1  0.100  0.032  0.032  0.032  0.000  0.000  0.000  0.000  0.000  0.195
    2  0.100  0.032  0.032  0.032  0.000  0.000  0.000  0.000  0.000  0.195
tot    0.201  0.063  0.063  0.063  0.000  0.000  0.000  0.000  0.000  0.391
 
band     6 # energy    8.52043092 # occ.  0.00000000
 
ion      s     py     pz     px    dxy    dyz    dz2    dxz  x2-y2    tot
    1  0.000  0.026  0.026  0.103  0.000  0.000  0.000  0.000  0.000  0.154
    2  0.000  0.026  0.026  0.103  0.000  0.000  0.000  0.000  0.000  0.154
tot    0.000  0.051  0.051  0.205  0.000  0.000  0.000  0.000  0.000  0.308
 
band     7 # energy    8.52043109 # occ.  0.00000000
 
ion      s     py     pz     px    dxy    dyz    dz2    dxz  x2-y2    tot
    1  0.000  0.077  0.077  0.000  0.000  0.000  0.000  0.000  0.000  0.154
    2  0.000  0.077  0.077  0.000  0.000  0.000  0.000  0.000  0.000  0.154
tot    0.000  0.154  0.154  0.000  0.000  0.000  0.000  0.000  0.000  0.308
 
band     8 # energy    9.91537460 # occ.  0.00000000
 
ion      s     py     pz     px    dxy    dyz    dz2    dxz  x2-y2    tot
    1  0.210  0.030  0.030  0.030  0.000  0.000  0.000  0.000  0.000  0.300
    2  0.210  0.030  0.030  0.030  0.000  0.000  0.000  0.000  0.000  0.300
tot    0.420  0.060  0.060  0.060  0.000  0.000  0.000  0.000  0.000  0.600
 
band     9 # energy   12.92614434 # occ.  0.00000000
 
ion      s     py     pz     px    dxy    dyz    dz2    dxz  x2-y2    tot
    1  0.000  0.000  0.000  0.001  0.000  0.000  0.000  0.000  0.000  0.002
    2  0.000  0.000  0.000  0.001  0.000  0.000  0.000  0.000  0.000  0.002
tot    0.000  0.001  0.001  0.002  0.000  0.000  0.000  0.000  0.000  0.003
 
band    10 # energy   12.92614438 # occ.  0.00000000
 
ion      s     py     pz     px    dxy    dyz    dz2    dxz  x2-y2    tot
    1  0.000  0.001  0.001  0.000  0.000  0.000  0.000  0.000  0.000  0.002
    2  0.000  0.001  0.001  0.000  0.000  0.000  0.000  0.000  0.000  0.002
tot    0.000  0.002  0.002  0.000  0.000  0.000  0.000  0.000  0.000  0.003
 
band    11 # energy   14.13719842 # occ.  0.00000000
 
ion      s     py     pz     px    dxy    dyz    dz2    dxz  x2-y2    tot
    1  0.082  0.009  0.009  0.009  0.000  0.000  0.000  0.000  0.000  0.109
    2  0.082  0.009  0.009  0.009  0.000  0.000  0.000  0.000  0.000  0.109
tot    0.164  0.018  0.018  0.018  0.000  0.000  0.000  0.000  0.000  0.217
 
band    12 # energy   16.32141179 # occ.  0.00000000
 
ion      s     py     pz     px    dxy    dyz    dz2    dxz  x2-y2    tot
    1  0.012  0.008  0.008  0.008  0.000  0.000  0.000  0.000  0.000  0.037
    2  0.012  0.008  0.008  0.008  0.000  0.000  0.000  0.000  0.000  0.037
tot    0.025  0.016  0.016  0.016  0.000  0.000  0.000  0.000  0.000  0.073
 
band    13 # energy   17.73965404 # occ.  0.00000000
 
ion      s     py     pz     px    dxy    dyz    dz2    dxz  x2-y2    tot
    1  0.000  0.018  0.018  0.000  0.000  0.000  0.000  0.000  0.000  0.036
    2  0.000  0.018  0.018  0.000  0.000  0.000  0.000  0.000  0.000  0.036
tot    0.000  0.036  0.036  0.000  0.000  0.000  0.000  0.000  0.000  0.071
 
band    14 # energy   17.73965432 # occ.  0.00000000
 
ion      s     py     pz     px    dxy    dyz    dz2    dxz  x2-y2    tot
    1  0.000  0.006  0.006  0.024  0.000  0.000  0.000  0.000  0.000  0.036
    2  0.000  0.006  0.006  0.024  0.000  0.000  0.000  0.000  0.000  0.036
tot    0.000  0.012  0.012  0.047  0.000  0.000  0.000  0.000  0.000  0.071
 
band    15 # energy   21.88989802 # occ.  0.00000000
 
ion      s     py     pz     px    dxy    dyz    dz2    dxz  x2-y2    tot
    1  0.027  0.004  0.004  0.004  0.000  0.000  0.000  0.000  0.000  0.040
    2  0.027  0.004  0.004  0.004  0.000  0.000  0.000  0.000  0.000  0.040
tot    0.053  0.009  0.009  0.009  0.000  0.000  0.000  0.000  0.000  0.079
 
band    16 # energy   26.83782939 # occ.  0.00000000
 
ion      s     py     pz     px    dxy    dyz    dz2    dxz  x2-y2    tot
    1  0.000  0.005  0.026  0.009  0.000  0.000  0.000  0.000  0.000  0.040
    2  0.000  0.004  0.028  0.008  0.000  0.000  0.000  0.000  0.000  0.040
tot    0.000  0.009  0.054  0.017  0.000  0.000  0.000  0.000  0.000  0.080
 

 k-point     3 :    0.22222222 0.00000000 0.00000000     weight = 0.01097394

band     1 # energy   -5.57207994 # occ.  2.00000000
 
ion      s     py     pz     px    dxy    dyz    dz2    dxz  x2-y2    tot
    1  0.210  0.002  0.002  0.002  0.000  0.000  0.000  0.000  0.000  0.216
    2  0.210  0.002  0.002  0.002  0.000  0.000  0.000  0.000  0.000  0.216
tot    0.419  0.004  0.004  0.004  0.000  0.000  0.000  0.000  0.000  0.432
 
band     2 # energy    2.23151150 # occ.  2.00000000
 
ion      s     py     pz     px    dxy    dyz    dz2    dxz  x2-y2    tot
    1  0.092  0.041  0.041  0.041  0.000  0.000  0.000  0.000  0.000  0.216
    2  0.092  0.041  0.041  0.041  0.000  0.000  0.000  0.000  0.000  0.216
tot    0.184  0.083  0.083  0.083  0.000  0.000  0.000  0.000  0.000  0.432
 
band     3 # energy    4.97158587 # occ.  2.00000000
 
ion      s     py     pz     px    dxy    dyz    dz2    dxz  x2-y2    tot
    1  0.000  0.035  0.035  0.141  0.000  0.000  0.000  0.000  0.000  0.211
    2  0.000  0.035  0.035  0.141  0.000  0.000  0.000  0.000  0.000  0.211
tot    0.000  0.070  0.070  0.281  0.000  0.000  0.000  0.000  0.000  0.422
 
band     4 # energy    4.97158644 # occ.  2.00000000
 
ion      s     py     pz     px    dxy    dyz    dz2    dxz  x2-y2    tot
    1  0.000  0.105  0.105  0.000  0.000  0.000  0.000  0.000  0.000  0.211
    2  0.000  0.105  0.105  0.000  0.000  0.000  0.000  0.000  0.000  0.211
tot    0.000  0.211  0.211  0.000  0.000  0.000  0.000  0.000  0.000  0.422
 
band     5 # energy    7.68700231 # occ.  0.00000000
 
ion      s     py     pz     px    dxy    dyz    dz2    dxz  x2-y2    tot
    1  0.149  0.018  0.018  0.018  0.000  0.000  0.000  0.000  0.000  0.204
    2  0.149  0.018  0.018  0.018  0.000  0.000  0.000  0.000  0.000  0.204
tot    0.297  0.037  0.037  0.037  0.000  0.000  0.000  0.000  0.000  0.408
 
band     6 # energy    9.04479153 # occ.  0.00000000
 
ion      s     py     pz     px    dxy    dyz    dz2    dxz  x2-y2    tot
    1  0.000  0.073  0.073  0.000  0.000  0.000  0.000  0.000  0.000  0.146
    2  0.000  0.073  0.073  0.000  0.000  0.000  0.000  0.000  0.000  0.146
tot    0.000  0.146  0.146  0.000  0.000  0.000  0.000  0.000  0.000  0.291
 
band     7 # energy    9.04479252 # occ.  0.00000000
 
ion      s     py     pz     px    dxy    dyz    dz2    dxz  x2-y2    tot
    1  0.000  0.024  0.024  0.097  0.000  0.000  0.000  0.000  0.000  0.146
    2  0.000  0.024  0.024  0.097  0.000  0.000  0.000  0.000  0.000  0.146
tot    0.000  0.049  0.049  0.194  0.000  0.000  0.000  0.000  0.000  0.291
 
band     8 # energy   11.89669369 # occ.  0.00000000
 
ion      s     py     pz     px    dxy    dyz    dz2    dxz  x2-y2    tot
    1  0.130  0.047  0.047  0.047  0.000  0.000  0.000  0.000  0.000  0.271
    2  0.130  0.047  0.047  0.047  0.000  0.000  0.000  0.000  0.000  0.271
tot    0.260  0.094  0.094  0.094  0.000  0.000  0.000  0.000  0.000  0.542
 
band     9 # energy   12.70255008 # occ.  0.00000000
 
ion      s     py     pz     px    dxy    dyz    dz2    dxz  x2-y2    tot
    1  0.000  0.002  0.002  0.007  0.000  0.000  0.000  0.000  0.000  0.010
    2  0.000  0.002  0.002  0.007  0.000  0.000  0.000  0.000  0.000  0.010
tot    0.000  0.003  0.003  0.014  0.000  0.000  0.000  0.000  0.000  0.021
 
band    10 # energy   12.70255222 # occ.  0.00000000
 
ion      s     py     pz     px    dxy    dyz    dz2    dxz  x2-y2    tot
    1  0.000  0.005  0.005  0.000  0.000  0.000  0.000  0.000  0.000  0.010
    2  0.000  0.005  0.005  0.000  0.000  0.000  0.000  0.000  0.000  0.010
tot    0.000  0.010  0.010  0.000  0.000  0.000  0.000  0.000  0.000  0.021
 
band    11 # energy   14.65178870 # occ.  0.00000000
 
ion      s     py     pz     px    dxy    dyz    dz2    dxz  x2-y2    tot
    1  0.044  0.010  0.010  0.010  0.000  0.000  0.000  0.000  0.000  0.074
    2  0.044  0.010  0.010  0.010  0.000  0.000  0.000  0.000  0.000  0.074
tot    0.089  0.020  0.020  0.020  0.000  0.000  0.000  0.000  0.000  0.149
 
band    12 # energy   16.81484373 # occ.  0.00000000
 
ion      s     py     pz     px    dxy    dyz    dz2    dxz  x2-y2    tot
    1  0.039  0.018  0.018  0.018  0.000  0.000  0.000  0.000  0.000  0.092
    2  0.039  0.018  0.018  0.018  0.000  0.000  0.000  0.000  0.000  0.092
tot    0.078  0.035  0.035  0.035  0.000  0.000  0.000  0.000  0.000  0.184
 
band    13 # energy   19.66844794 # occ.  0.00000000
 
ion      s     py     pz     px    dxy    dyz    dz2    dxz  x2-y2    tot
    1  0.000  0.006  0.006  0.022  0.000  0.000  0.000  0.000  0.000  0.034
    2  0.000  0.006  0.006  0.022  0.000  0.000  0.000  0.000  0.000  0.034
tot    0.000  0.011  0.011  0.045  0.000  0.000  0.000  0.000  0.000  0.067
 
band    14 # energy   19.66844869 # occ.  0.00000000
 
ion      s     py     pz     px    dxy    dyz    dz2    dxz  x2-y2    tot
    1  0.000  0.017  0.017  0.000  0.000  0.000  0.000  0.000  0.000  0.034
    2  0.000  0.017  0.017  0.000  0.000  0.000  0.000  0.000  0.000  0.034
tot    0.000  0.034  0.034  0.000  0.000  0.000  0.000  0.000  0.000  0.067
 
band    15 # energy   23.51416798 # occ.  0.00000000
 
ion      s     py     pz     px    dxy    dyz    dz2    dxz  x2-y2    tot
    1  0.014  0.022  0.022  0.022  0.000  0.000  0.000  0.000  0.000  0.081
    2  0.014  0.022  0.023  0.022  0.000  0.000  0.000  0.000  0.000  0.081
tot    0.029  0.045  0.045  0.044  0.000  0.000  0.000  0.000  0.000  0.163
 
band    16 # energy   23.93164404 # occ.  0.00000000
 
ion      s     py     pz     px    dxy    dyz    dz2    dxz  x2-y2    tot
    1  0.000  0.032  0.015  0.003  0.000  0.000  0.000  0.000  0.000  0.050
    2  0.000  0.032  0.015  0.003  0.000  0.000  0.000  0.000  0.000  0.050
tot    0.000  0.063  0.030  0.006  0.000  0.000  0.000  0.000  0.000  0.099
 

 k-point     4 :    0.33333333 0.00000000 0.00000000     weight = 0.01097394

band     1 # energy   -4.84611555 # occ.  2.00000000
 
ion      s     py     pz     px    dxy    dyz    dz2    dxz  x2-y2    tot
    1  0.210  0.004  0.004  0.004  0.000  0.000  0.000  0.000  0.000  0.222
    2  0.210  0.004  0.004  0.004  0.000  0.000  0.000  0.000  0.000  0.222
tot    0.420  0.008  0.008  0.008  0.000  0.000  0.000  0.000  0.000  0.444
 
band     2 # energy    0.34999481 # occ.  2.00000000
 
ion      s     py     pz     px    dxy    dyz    dz2    dxz  x2-y2    tot
    1  0.106  0.034  0.034  0.034  0.000  0.000  0.000  0.000  0.000  0.208
    2  0.106  0.034  0.034  0.034  0.000  0.000  0.000  0.000  0.000  0.208
tot    0.213  0.068  0.068  0.068  0.000  0.000  0.000  0.000  0.000  0.416
 
band     3 # energy    4.63791271 # occ.  2.00000000
 
ion      s     py     pz     px    dxy    dyz    dz2    dxz  x2-y2    tot
    1  0.000  0.036  0.036  0.142  0.000  0.000  0.000  0.000  0.000  0.213
    2  0.000  0.036  0.036  0.142  0.000  0.000  0.000  0.000  0.000  0.213
tot    0.000  0.071  0.071  0.284  0.000  0.000  0.000  0.000  0.000  0.426
 
band     4 # energy    4.63791321 # occ.  2.00000000
 
ion      s     py     pz     px    dxy    dyz    dz2    dxz  x2-y2    tot
    1  0.000  0.107  0.107  0.000  0.000  0.000  0.000  0.000  0.000  0.213
    2  0.000  0.107  0.107  0.000  0.000  0.000  0.000  0.000  0.000  0.213
tot    0.000  0.213  0.213  0.000  0.000  0.000  0.000  0.000  0.000  0.426
 
band     5 # energy    7.31478485 # occ.  0.00000000
 
ion      s     py     pz     px    dxy    dyz    dz2    dxz  x2-y2    tot
    1  0.172  0.011  0.011  0.011  0.000  0.000  0.000  0.000  0.000  0.205
    2  0.172  0.011  0.011  0.011  0.000  0.000  0.000  0.000  0.000  0.205
tot    0.345  0.022  0.022  0.022  0.000  0.000  0.000  0.000  0.000  0.410
 
band     6 # energy    9.12488260 # occ.  0.00000000
 
ion      s     py     pz     px    dxy    dyz    dz2    dxz  x2-y2    tot
    1  0.000  0.058  0.058  0.000  0.000  0.000  0.000  0.000  0.000  0.115
    2  0.000  0.058  0.058  0.000  0.000  0.000  0.000  0.000  0.000  0.115
tot    0.000  0.115  0.115  0.000  0.000  0.000  0.000  0.000  0.000  0.231
 
band     7 # energy    9.12488478 # occ.  0.00000000
 
ion      s     py     pz     px    dxy    dyz    dz2    dxz  x2-y2    tot
    1  0.000  0.019  0.019  0.077  0.000  0.000  0.000  0.000  0.000  0.115
    2  0.000  0.019  0.019  0.077  0.000  0.000  0.000  0.000  0.000  0.115
tot    0.000  0.038  0.038  0.154  0.000  0.000  0.000  0.000  0.000  0.231
 
band     8 # energy   13.40596082 # occ.  0.00000000
 
ion      s     py     pz     px    dxy    dyz    dz2    dxz  x2-y2    tot
    1  0.021  0.044  0.044  0.044  0.000  0.000  0.000  0.000  0.000  0.154
    2  0.021  0.044  0.044  0.044  0.000  0.000  0.000  0.000  0.000  0.154
tot    0.041  0.089  0.089  0.089  0.000  0.000  0.000  0.000  0.000  0.308
 
band     9 # energy   13.57777509 # occ.  0.00000000
 
ion      s     py     pz     px    dxy    dyz    dz2    dxz  x2-y2    tot
    1  0.000  0.006  0.006  0.023  0.000  0.000  0.000  0.000  0.000  0.035
    2  0.000  0.006  0.006  0.023  0.000  0.000  0.000  0.000  0.000  0.035
tot    0.000  0.012  0.012  0.046  0.000  0.000  0.000  0.000  0.000  0.069
 
band    10 # energy   13.57778021 # occ.  0.00000000
 
ion      s     py     pz     px    dxy    dyz    dz2    dxz  x2-y2    tot
    1  0.000  0.017  0.017  0.000  0.000  0.000  0.000  0.000  0.000  0.035
    2  0.000  0.017  0.017  0.000  0.000  0.000  0.000  0.000  0.000  0.035
tot    0.000  0.035  0.035  0.000  0.000  0.000  0.000  0.000  0.000  0.069
 
band    11 # energy   14.60439806 # occ.  0.00000000
 
ion      s     py     pz     px    dxy    dyz    dz2    dxz  x2-y2    tot
    1  0.101  0.016  0.016  0.016  0.000  0.000  0.000  0.000  0.000  0.150
    2  0.101  0.016  0.016  0.016  0.000  0.000  0.000  0.000  0.000  0.150
tot    0.203  0.032  0.032  0.032  0.000  0.000  0.000  0.000  0.000  0.300
 
band    12 # energy   19.05263243 # occ.  0.00000000
 
ion      s     py     pz     px    dxy    dyz    dz2    dxz  x2-y2    tot
    1  0.017  0.053  0.053  0.053  0.000  0.000  0.000  0.000  0.000  0.175
    2  0.017  0.053  0.053  0.053  0.000  0.000  0.000  0.000  0.000  0.175
tot    0.034  0.106  0.106  0.106  0.000  0.000  0.000  0.000  0.000  0.351
 
band    13 # energy   20.09228599 # occ.  0.00000000
 
ion      s     py     pz     px    dxy    dyz    dz2    dxz  x2-y2    tot
    1  0.000  0.009  0.009  0.038  0.000  0.000  0.000  0.000  0.000  0.057
    2  0.000  0.009  0.009  0.038  0.000  0.000  0.000  0.000  0.000  0.057
tot    0.000  0.019  0.019  0.076  0.000  0.000  0.000  0.000  0.000  0.114
 
band    14 # energy   20.09229487 # occ.  0.00000000
 
ion      s     py     pz     px    dxy    dyz    dz2    dxz  x2-y2    tot
    1  0.000  0.028  0.028  0.000  0.000  0.000  0.000  0.000  0.000  0.057
    2  0.000  0.028  0.028  0.000  0.000  0.000  0.000  0.000  0.000  0.057
tot    0.000  0.057  0.057  0.000  0.000  0.000  0.000  0.000  0.000  0.114
 
band    15 # energy   22.21692219 # occ.  0.00000000
 
ion      s     py     pz     px    dxy    dyz    dz2    dxz  x2-y2    tot
    1  0.057  0.020  0.020  0.020  0.000  0.000  0.000  0.000  0.000  0.118
    2  0.057  0.020  0.020  0.020  0.000  0.000  0.000  0.000  0.000  0.118
tot    0.115  0.041  0.040  0.041  0.000  0.000  0.000  0.000  0.000  0.236
 
band    16 # energy   23.13466410 # occ.  0.00000000
 
ion      s     py     pz     px    dxy    dyz    dz2    dxz  x2-y2    tot
    1  0.000  0.007  0.006  0.019  0.000  0.000  0.000  0.000  0.000  0.031
    2  0.000  0.007  0.006  0.019  0.000  0.000  0.000  0.000  0.000  0.031
tot    0.000  0.013  0.012  0.037  0.000  0.000  0.000  0.000  0.000  0.062
 

 k-point     5 :    0.44444444 0.00000000 0.00000000     weight = 0.01097394

band     1 # energy   -4.07461063 # occ.  2.00000000
 
ion      s     py     pz     px    dxy    dyz    dz2    dxz  x2-y2    tot
    1  0.219  0.005  0.005  0.005  0.000  0.000  0.000  0.000  0.000  0.233
    2  0.219  0.005  0.005  0.005  0.000  0.000  0.000  0.000  0.000  0.233
tot    0.438  0.009  0.009  0.009  0.000  0.000  0.000  0.000  0.000  0.466
 
band     2 # energy   -1.01710161 # occ.  2.00000000
 
ion      s     py     pz     px    dxy    dyz    dz2    dxz  x2-y2    tot
    1  0.103  0.031  0.031  0.031  0.000  0.000  0.000  0.000  0.000  0.196
    2  0.103  0.031  0.031  0.031  0.000  0.000  0.000  0.000  0.000  0.196
tot    0.207  0.061  0.061  0.061  0.000  0.000  0.000  0.000  0.000  0.391
 
band     3 # energy    4.46383076 # occ.  2.00000000
 
ion      s     py     pz     px    dxy    dyz    dz2    dxz  x2-y2    tot
    1  0.000  0.036  0.036  0.143  0.000  0.000  0.000  0.000  0.000  0.215
    2  0.000  0.036  0.036  0.143  0.000  0.000  0.000  0.000  0.000  0.215
tot    0.000  0.072  0.072  0.287  0.000  0.000  0.000  0.000  0.000  0.430
 
band     4 # energy    4.46383128 # occ.  2.00000000
 
ion      s     py     pz     px    dxy    dyz    dz2    dxz  x2-y2    tot
    1  0.000  0.108  0.108  0.000  0.000  0.000  0.000  0.000  0.000  0.215
    2  0.000  0.108  0.108  0.000  0.000  0.000  0.000  0.000  0.000  0.215
tot    0.000  0.215  0.215  0.000  0.000  0.000  0.000  0.000  0.000  0.430
 
band     5 # energy    7.11437009 # occ.  0.00000000
 
ion      s     py     pz     px    dxy    dyz    dz2    dxz  x2-y2    tot
    1  0.183  0.007  0.007  0.007  0.000  0.000  0.000  0.000  0.000  0.206
    2  0.183  0.007  0.007  0.007  0.000  0.000  0.000  0.000  0.000  0.206
tot    0.367  0.015  0.015  0.015  0.000  0.000  0.000  0.000  0.000  0.411
 
band     6 # energy    8.99432925 # occ.  0.00000000
 
ion      s     py     pz     px    dxy    dyz    dz2    dxz  x2-y2    tot
    1  0.000  0.049  0.049  0.000  0.000  0.000  0.000  0.000  0.000  0.097
    2  0.000  0.049  0.049  0.000  0.000  0.000  0.000  0.000  0.000  0.097
tot    0.000  0.097  0.097  0.000  0.000  0.000  0.000  0.000  0.000  0.194
 
band     7 # energy    8.99433181 # occ.  0.00000000
 
ion      s     py     pz     px    dxy    dyz    dz2    dxz  x2-y2    tot
    1  0.000  0.016  0.016  0.065  0.000  0.000  0.000  0.000  0.000  0.097
    2  0.000  0.016  0.016  0.065  0.000  0.000  0.000  0.000  0.000  0.097
tot    0.000  0.032  0.032  0.130  0.000  0.000  0.000  0.000  0.000  0.194
 
band     8 # energy   13.35960631 # occ.  0.00000000
 
ion      s     py     pz     px    dxy    dyz    dz2    dxz  x2-y2    tot
    1  0.005  0.020  0.020  0.020  0.000  0.000  0.000  0.000  0.000  0.064
    2  0.005  0.020  0.020  0.020  0.000  0.000  0.000  0.000  0.000  0.064
tot    0.009  0.039  0.039  0.039  0.000  0.000  0.000  0.000  0.000  0.127
 
band     9 # energy   15.32813236 # occ.  0.00000000
 
ion      s     py     pz     px    dxy    dyz    dz2    dxz  x2-y2    tot
    1  0.000  0.006  0.006  0.026  0.000  0.000  0.000  0.000  0.000  0.038
    2  0.000  0.006  0.006  0.026  0.000  0.000  0.000  0.000  0.000  0.038
tot    0.000  0.013  0.013  0.051  0.000  0.000  0.000  0.000  0.000  0.077
 
band    10 # energy   15.32813977 # occ.  0.00000000
 
ion      s     py     pz     px    dxy    dyz    dz2    dxz  x2-y2    tot
    1  0.000  0.019  0.019  0.000  0.000  0.000  0.000  0.000  0.000  0.038
    2  0.000  0.019  0.019  0.000  0.000  0.000  0.000  0.000  0.000  0.038
tot    0.000  0.038  0.038  0.000  0.000  0.000  0.000  0.000  0.000  0.077
 
band    11 # energy   16.26116860 # occ.  0.00000000
 
ion      s     py     pz     px    dxy    dyz    dz2    dxz  x2-y2    tot
    1  0.066  0.047  0.047  0.047  0.000  0.000  0.000  0.000  0.000  0.208
    2  0.066  0.047  0.047  0.047  0.000  0.000  0.000  0.000  0.000  0.208
tot    0.131  0.095  0.095  0.095  0.000  0.000  0.000  0.000  0.000  0.415
 
band    12 # energy   17.72843567 # occ.  0.00000000
 
ion      s     py     pz     px    dxy    dyz    dz2    dxz  x2-y2    tot
    1  0.000  0.012  0.012  0.050  0.000  0.000  0.000  0.000  0.000  0.075
    2  0.000  0.012  0.012  0.050  0.000  0.000  0.000  0.000  0.000  0.075
tot    0.000  0.025  0.025  0.100  0.000  0.000  0.000  0.000  0.000  0.150
 
band    13 # energy   17.72844291 # occ.  0.00000000
 
ion      s     py     pz     px    dxy    dyz    dz2    dxz  x2-y2    tot
    1  0.000  0.037  0.037  0.000  0.000  0.000  0.000  0.000  0.000  0.075
    2  0.000  0.037  0.037  0.000  0.000  0.000  0.000  0.000  0.000  0.075
tot    0.000  0.075  0.075  0.000  0.000  0.000  0.000  0.000  0.000  0.150
 
band    14 # energy   18.87033729 # occ.  0.00000000
 
ion      s     py     pz     px    dxy    dyz    dz2    dxz  x2-y2    tot
    1  0.057  0.073  0.073  0.073  0.000  0.000  0.000  0.000  0.000  0.274
    2  0.057  0.073  0.073  0.073  0.000  0.000  0.000  0.000  0.000  0.274
tot    0.113  0.145  0.145  0.145  0.000  0.000  0.000  0.000  0.000  0.549
 
band    15 # energy   23.42160388 # occ.  0.00000000
 
ion      s     py     pz     px    dxy    dyz    dz2    dxz  x2-y2    tot
    1  0.048  0.005  0.005  0.005  0.000  0.000  0.000  0.000  0.000  0.064
    2  0.048  0.005  0.005  0.005  0.000  0.000  0.000  0.000  0.000  0.064
tot    0.096  0.011  0.011  0.011  0.000  0.000  0.000  0.000  0.000  0.129
 
band    16 # energy   25.72991988 # occ.  0.00000000
 
ion      s     py     pz     px    dxy    dyz    dz2    dxz  x2-y2    tot
    1  0.000  0.010  0.001  0.013  0.000  0.000  0.000  0.000  0.000  0.023
    2  0.000  0.010  0.001  0.013  0.000  0.000  0.000  0.000  0.000  0.023
tot    0.000  0.020  0.002  0.025  0.000  0.000  0.000  0.000  0.000  0.047
 

 k-point     6 :    0.11111111 0.11111111 0.00000000     weight = 0.00823045

band     1 # energy   -5.98466636 # occ.  2.00000000
 
ion      s     py     pz     px    dxy    dyz    dz2    dxz  x2-y2    tot